% Model:              Beers_Helicon_v1.mph
% Version:            COMSOL 5.3.1.275
% Date:               Aug 6 2020, 15:44
% Dimension:          3
% Nodes:              3421
% Expressions:        17
% Description:        x-coordinate, y-coordinate, z-coordinate, Magnetic field norm, Magnetic flux density norm, , , , Br from 2D model, r coordinate, quasilneutral density, electron temperature, ion temperature, Electric field norm, Electric field, x component, Electric field, y component, Electric field, z component
% Length unit:        m
% x             y              z              x (m)          y (m)          z (m)          emw.normH (A/m) emw.normB (T)  real(emw.Bx) (T) real(emw.By) (T) real(emw.Bz) (T) Bz (T)         Br (T)         ni (1/m^3)     Te (eV)        Ti (eV)        emw.normE (V/m) emw.Ex (V/m)                   emw.Ey (V/m)                   emw.Ez (V/m)
-0.062560       0.0000         -0.13494       -0.062560      0.0000         -0.13494       1193.6         0.0014999      -9.5563E-4     -2.6339E-4     2.0482E-4      0.072175       -0.0012661     3.0000E17      4.0000         4.0000         15133          -9840.9+369.16i                -832.38-1357.3i                817.25+531.59i
-0.062560       0.0000         -0.13996       -0.062560      0.0000         -0.13996       1296.0         0.0016287      -0.0010609     -2.7112E-4     3.2945E-4      0.071863       -0.0017655     3.0000E17      4.0000         4.0000         10967          -4581.2+1099.1i                -633.78-1024.5i                1011.3+747.27i
-0.062560       0.0000         -0.14498       -0.062560      0.0000         -0.14498       1447.5         0.0018190      -0.0012059     -2.8278E-4     4.3651E-4      0.071550       -0.0022650     3.0000E17      4.0000         4.0000         7492.9         -641.61+1576.4i                -369.53-638.96i                1021.6+782.65i
-0.062560       0.0000         -0.15000       -0.062560      0.0000         -0.15000       1902.4         0.0023907      -0.0015650     -2.7378E-4     6.6420E-4      0.070895       -0.0025353     3.0000E17      4.0000         4.0000         4768.9         3380.2+2125.2i                 -33.231-105.77i                1069.7+935.21i
-0.062436       -0.0039936     -0.13636       -0.062436      -0.0039936     -0.13636       1220.7         0.0015340      -9.3427E-4     -2.5681E-4     2.3821E-4      0.072087       -0.0014074     3.0000E17      4.0000         4.0000         13535          -8237.1+519.74i                -1454.8-1023.6i                874.92+569.65i
-0.062436       -0.0039936     -0.14138       -0.062436      -0.0039936     -0.14138       1341.8         0.0016862      -0.0010564     -2.6753E-4     3.7178E-4      0.071775       -0.0019069     3.0000E17      4.0000         4.0000         9610.9         -3593.5+1085.6i                -922.36-670.55i                959.67+685.04i
-0.062436       -0.0039936     -0.14640       -0.062436      -0.0039936     -0.14640       1636.3         0.0020562      -0.0013237     -2.7314E-4     5.3531E-4      0.071381       -0.0023522     3.0000E17      4.0000         4.0000         5980.5         683.79+1627.7i                 -334.49-224.29i                966.77+726.77i
-0.062036       -0.0080565     -0.13778       -0.062036      -0.0080565     -0.13778       1264.7         0.0015893      -9.2544E-4     -2.5443E-4     2.7757E-4      0.071998       -0.0015483     3.0000E17      4.0000         4.0000         12026          -6887.0+535.94i                -1878.3-721.03i                826.14+521.85i
-0.062036       -0.0080565     -0.14280       -0.062036      -0.0080565     -0.14280       1431.6         0.0017990      -0.0010879     -2.7145E-4     4.2533E-4      0.071686       -0.0020476     3.0000E17      4.0000         4.0000         8262.4         -2305.6+1168.8i                -1011.0-360.27i                880.93+564.18i
-0.061361       -0.012189      -0.13920       -0.061361      -0.012189      -0.13920       1306.1         0.0016413      -8.7575E-4     -2.6272E-4     2.8209E-4      0.071910       -0.0016896     3.0000E17      4.0000         4.0000         10561          -5369.0+629.69i                -2089.9-749.81i                747.09+381.44i
-0.062426       -0.0040945     -0.15000       -0.062426      -0.0040945     -0.15000       2242.2         0.0028176      -0.0017246     -3.2363E-4     7.9173E-4      0.070895       -0.0025353     3.0000E17      4.0000         4.0000         4506.7         3274.0+1886.3i                 214.58+123.63i                 1043.2+820.89i
-0.062025       -0.0081628     -0.15000       -0.062025      -0.0081628     -0.15000       2301.9         0.0028927      -0.0016605     -4.0132E-4     7.9867E-4      0.070895       -0.0025353     3.0000E17      4.0000         4.0000         4101.0         3080.6+1573.2i                 405.61+207.14i                 957.04+603.84i
-0.061358       -0.012205      -0.15000       -0.061358      -0.012205      -0.15000       2374.0         0.0029833      -0.0015974     -4.2368E-4     7.9726E-4      0.070895       -0.0025353     3.0000E17      4.0000         4.0000         3618.8         2835.8+1131.5i                 564.02+225.02i                 848.16+399.67i
-0.062031       -0.0081097     -0.14640       -0.062031      -0.0081097     -0.14640       1842.9         0.0023159      -0.0013883     -3.4312E-4     6.1553E-4      0.071381       -0.0023518     3.0000E17      4.0000         4.0000         6020.0         445.24+1410.8i                 -325.44-123.83i                923.07+558.80i
-0.061359       -0.012199      -0.14640       -0.061359      -0.012199      -0.14640       1899.3         0.0023868      -0.0013259     -3.7838E-4     6.2472E-4      0.071381       -0.0023519     3.0000E17      4.0000         4.0000         5691.2         222.44+1028.0i                 -384.95-165.87i                840.05+380.86i
-0.061360       -0.012194      -0.14280       -0.061360      -0.012194      -0.14280       1517.4         0.0019068      -0.0010559     -3.2973E-4     4.5231E-4      0.071686       -0.0020478     3.0000E17      4.0000         4.0000         8174.4         -2383.0+916.70i                -1261.1-501.23i                831.88+361.96i
-0.060428       -0.016195      -0.15000       -0.060428      -0.016195      -0.15000       2489.9         0.0031289      -0.0016228     -3.9093E-4     7.6161E-4      0.070895       -0.0025353     3.0000E17      4.0000         4.0000         3070.1         2461.9+616.17i                 659.63+165.09i                 751.34+333.80i
-0.059241       -0.020107      -0.15000       -0.059241      -0.020107      -0.15000       2593.6         0.0032592      -0.0016309     -4.2261E-4     7.3455E-4      0.070895       -0.0025353     3.0000E17      4.0000         4.0000         2618.3         2127.5+252.37i                 722.25+85.674i                 607.15+264.55i
-0.057798       -0.023941      -0.15000       -0.057798      -0.023941      -0.15000       2399.7         0.0030156      -0.0013973     -4.3963E-4     6.5309E-4      0.070895       -0.0025353     3.0000E17      4.0000         4.0000         2596.9         2190.1-67.530i                 853.89-22.217i                 550.52+178.02i
-0.060439       -0.016157      -0.14640       -0.060439      -0.016157      -0.14640       1997.7         0.0025104      -0.0013458     -3.5938E-4     5.9784E-4      0.071381       -0.0023520     3.0000E17      4.0000         4.0000         5174.4         -0.042383+574.71i              -488.76-287.89i                787.20+352.39i
-0.059262       -0.020037      -0.14640       -0.059262      -0.020037      -0.14640       1919.9         0.0024127      -0.0012248     -3.6870E-4     5.1776E-4      0.071381       -0.0023518     3.0000E17      4.0000         4.0000         4595.3         -195.45+254.26i                -582.12-337.87i                686.46+290.58i
-0.060450       -0.016119      -0.14280       -0.060450      -0.016119      -0.14280       1551.6         0.0019498      -0.0010414     -3.1384E-4     3.8917E-4      0.071686       -0.0020480     3.0000E17      4.0000         4.0000         7548.6         -2634.7+475.04i                -1559.5-679.01i                761.96+345.46i
-0.052017       -0.034757      -0.15000       -0.052017      -0.034757      -0.15000       2612.8         0.0032834      -0.0012468     -4.5408E-4     5.6902E-4      0.070895       -0.0025353     3.0000E17      4.0000         4.0000         2353.7         1004.6-1379.8i                 602.96-967.71i                 301.10-163.79i
-0.049630       -0.038086      -0.15000       -0.049630      -0.038086      -0.15000       3061.3         0.0038470      -0.0013054     -5.5639E-4     5.9565E-4      0.070895       -0.0025353     3.0000E17      4.0000         4.0000         2424.9         339.86-1738.2i                 260.78-1333.7i                 295.42-222.41i
-0.047037       -0.041247      -0.15000       -0.047037      -0.041247      -0.15000       3092.5         0.0038862      -0.0012530     -5.2308E-4     5.6521E-4      0.070895       -0.0025353     3.0000E17      4.0000         4.0000         2811.2         44.290-1968.5i                 38.842-1726.3i                 173.31-328.47i
-0.044237       -0.044237      -0.15000       -0.044237      -0.044237      -0.15000       2851.3         0.0035831      -0.0011241     -4.1108E-4     4.9161E-4      0.070895       -0.0025353     3.0000E17      4.0000         4.0000         3604.8         -193.70-2391.4i                -280.16-2369.7i                124.04-437.17i
-0.050579       -0.036818      -0.14658       -0.050579      -0.036818      -0.14658       2176.8         0.0027355      -0.0011016     -3.4262E-4     4.2411E-4      0.071356       -0.0023613     3.0000E17      4.0000         4.0000         3471.5         -152.38-1213.8i                -1058.2-1287.3i                266.13-224.18i
-0.048061       -0.040048      -0.14658       -0.048061      -0.040048      -0.14658       2436.8         0.0030622      -0.0011164     -3.8130E-4     4.5266E-4      0.071356       -0.0023613     3.0000E17      4.0000         4.0000         4454.0         -851.64-1507.2i                -1645.0-1615.6i                250.69-282.44i
-0.045337       -0.043109      -0.14658       -0.045337      -0.043109      -0.14658       2292.2         0.0028805      -0.0010300     -2.9455E-4     3.8665E-4      0.071356       -0.0023613     3.0000E17      4.0000         4.0000         4969.3         -1027.6-1937.6i                -1948.7-2079.2i                170.00-395.48i
-0.049056       -0.038824      -0.14317       -0.049056      -0.038824      -0.14317       1822.2         0.0022898      -9.7242E-4     -2.2333E-4     2.9940E-4      0.071663       -0.0020844     3.0000E17      4.0000         4.0000         5661.9         -1406.3-981.16i                -2877.3-1487.7i                237.11-283.60i
-0.046407       -0.041955      -0.14317       -0.046407      -0.041955      -0.14317       1885.6         0.0023695      -9.3966E-4     -2.0340E-4     2.7969E-4      0.071663       -0.0020845     3.0000E17      4.0000         4.0000         6717.7         -2022.9-1517.3i                -3500.8-1835.5i                226.95-376.01i
-0.047447       -0.040774      -0.13975       -0.047447      -0.040774      -0.13975       1601.0         0.0020119      -8.8259E-4     -1.2442E-4     1.6715E-4      0.071876       -0.0017445     3.0000E17      4.0000         4.0000         8164.8         -2912.1-924.64i                -4853.6-1531.4i                158.79-396.76i
-0.041247       -0.047037      -0.15000       -0.041247      -0.047037      -0.15000       3077.9         0.0038678      -0.0011013     -4.2247E-4     4.5597E-4      0.070895       -0.0025353     3.0000E17      4.0000         4.0000         4237.1         -432.30-2564.4i                -492.94-2924.2i                127.95-550.74i
-0.038086       -0.049630      -0.15000       -0.038086      -0.049630      -0.15000       3103.4         0.0038999      -0.0010716     -3.8235E-4     4.1902E-4      0.070895       -0.0025353     3.0000E17      4.0000         4.0000         4752.4         -568.52-2636.7i                -740.93-3436.3i                27.829-620.68i
-0.034757       -0.052017      -0.15000       -0.034757      -0.052017      -0.15000       2821.2         0.0035452      -9.7865E-4     -2.6676E-4     3.3117E-4      0.070895       -0.0025353     3.0000E17      4.0000         4.0000         5473.6         -558.22-2806.3i                -1046.1-4148.6i                69.853-707.98i
-0.042564       -0.045849      -0.14559       -0.042564      -0.045849      -0.14559       2242.6         0.0028181      -0.0010229     -2.5072E-4     3.2659E-4      0.071490       -0.0023107     3.0000E17      4.0000         4.0000         5766.4         -931.68-1967.4i                -2496.0-2544.2i                84.809-532.39i
-0.039474       -0.048534      -0.14559       -0.039474      -0.048534      -0.14559       2410.8         0.0030295      -0.0010154     -2.5553E-4     3.1275E-4      0.071490       -0.0023107     3.0000E17      4.0000         4.0000         6253.4         -944.44-2063.2i                -2727.2-2980.8i                72.042-594.15i
-0.036215       -0.051012      -0.14559       -0.036215      -0.051012      -0.14559       2255.1         0.0028339      -9.6252E-4     -1.7680E-4     2.3994E-4      0.071490       -0.0023107     3.0000E17      4.0000         4.0000         6883.5         -912.74-2281.4i                -3107.7-3525.4i                54.699-669.97i
-0.040835       -0.047395      -0.14118       -0.040835      -0.047395      -0.14118       1844.4         0.0023177      -9.6121E-4     -1.3119E-4     1.7881E-4      0.071787       -0.0018867     3.0000E17      4.0000         4.0000         8142.1         -1589.2-1469.6i                -4673.3-2568.5i                50.887-595.94i
-0.037646       -0.049965      -0.14118       -0.037646      -0.049965      -0.14118       1858.8         0.0023358      -9.3638E-4     -1.0060E-4     1.4463E-4      0.071787       -0.0018867     3.0000E17      4.0000         4.0000         8704.4         -1496.3-1717.2i                -5035.6-2926.9i                84.458-658.06i
-0.039051       -0.048875      -0.13677       -0.039051      -0.048875      -0.13677       1649.2         0.0020724      -9.3133E-4     -5.3341E-5     5.5662E-5      0.072061       -0.0014478     3.0000E17      4.0000         4.0000         10485          -2262.5-1150.3i                -6929.3-2484.4i                37.838-658.10i
-0.044815       -0.043650      -0.13875       -0.044815      -0.043650      -0.13875       1631.7         0.0020504      -9.1338E-4     -1.1626E-4     1.1926E-4      0.071938       -0.0016456     3.0000E17      4.0000         4.0000         9159.7         -3081.2-1103.4i                -5680.5-1744.5i                114.55-495.11i
-0.043704       -0.044763      -0.14217       -0.043704      -0.044763      -0.14217       1855.4         0.0023316      -9.5561E-4     -1.6648E-4     2.0526E-4      0.071725       -0.0019856     3.0000E17      4.0000         4.0000         7447.2         -1900.6-1587.3i                -4100.4-2190.8i                113.37-536.31i
-0.042017       -0.046351      -0.13776       -0.042017      -0.046351      -0.13776       1641.0         0.0020622      -9.2408E-4     -9.2094E-5     7.6885E-5      0.072000       -0.0015467     3.0000E17      4.0000         4.0000         9921.4         -2728.1-964.88i                -6398.4-2067.4i                77.261-561.83i
-0.012205       -0.061358      -0.15000       -0.012205      -0.061358      -0.15000       2755.7         0.0034630      -8.1339E-4     2.3938E-4      -7.5213E-5     0.070895       -0.0025353     3.0000E17      4.0000         4.0000         9137.9         -7.3969-1634.7i                -512.43-8039.9i                1067.6-1349.3i
-0.0081628      -0.062025      -0.15000       -0.0081628     -0.062025      -0.15000       3014.2         0.0037877      -8.4645E-4     4.6369E-4      -1.8525E-4     0.070895       -0.0025353     3.0000E17      4.0000         4.0000         9810.4         -47.247-1147.5i                -358.84-8715.6i                1150.5-1533.9i
-0.0040945      -0.062426      -0.15000       -0.0040945     -0.062426      -0.15000       2927.9         0.0036793      -9.0910E-4     5.9944E-4      -2.6284E-4     0.070895       -0.0025353     3.0000E17      4.0000         4.0000         10109          -32.030-593.14i                -488.71-9050.0i                1089.9-1616.7i
0.0000          -0.062560      -0.15000       0.0000         -0.062560      -0.15000       2457.9         0.0030887      -9.6920E-4     6.4679E-4      -2.8184E-4     0.070895       -0.0025353     3.0000E17      4.0000         4.0000         10727          180.49-291.65i                 -705.43-9423.8i                1263.1-1991.8i
-0.010618       -0.061652      -0.14784       -0.010618      -0.061652      -0.14784       2364.8         0.0029717      -8.4272E-4     2.5499E-4      -1.1898E-4     0.071186       -0.0024254     3.0000E17      4.0000         4.0000         9315.2         496.89-1534.8i                 -618.15-7862.0i                1080.8-1425.3i
-0.0065501      -0.062216      -0.14784       -0.0065501     -0.062216      -0.14784       2496.7         0.0031375      -8.8841E-4     4.2703E-4      -2.1137E-4     0.071186       -0.0024254     3.0000E17      4.0000         4.0000         9890.6         465.18-1010.4i                 -465.44-8488.6i                1107.8-1592.2i
-0.0024562      -0.062513      -0.14784       -0.0024562     -0.062513      -0.14784       2181.5         0.0027414      -9.5800E-4     5.0772E-4      -2.4655E-4     0.071186       -0.0024255     3.0000E17      4.0000         4.0000         10372          623.31-709.30i                 -705.80-8777.9i                1277.8-1931.2i
-0.0090374      -0.061904      -0.14569       -0.0090374     -0.061904      -0.14569       2043.7         0.0025681      -8.8464E-4     2.4218E-4      -1.4412E-4     0.071477       -0.0023156     3.0000E17      4.0000         4.0000         9496.0         904.39-1418.2i                 -782.68-7614.3i                1062.0-1474.0i
-0.0049441      -0.062364      -0.14569       -0.0049441     -0.062364      -0.14569       1938.7         0.0024362      -9.4683E-4     3.6937E-4      -2.1330E-4     0.071477       -0.0023156     3.0000E17      4.0000         4.0000         10129          1032.1-1049.3i                 -721.41-8130.8i                1267.6-1853.7i
-0.0074637      -0.062113      -0.14353       -0.0074637     -0.062113      -0.14353       1753.7         0.0022038      -9.4180E-4     2.3392E-4      -1.6202E-4     0.071641       -0.0021205     3.0000E17      4.0000         4.0000         9694.3         1370.9-1397.8i                 -1109.7-7146.3i                1225.6-1657.9i
-0.031278       -0.054180      -0.15000       -0.031278      -0.054180      -0.15000       3004.7         0.0037758      -9.4318E-4     -2.3751E-4     2.7885E-4      0.070895       -0.0025353     3.0000E17      4.0000         4.0000         5975.4         -602.89-2678.1i                -1044.2-4638.4i                242.89-898.82i
-0.027672       -0.056107      -0.15000       -0.027672      -0.056107      -0.15000       2993.5         0.0037618      -9.2661E-4     -1.8020E-4     2.3235E-4      0.070895       -0.0025353     3.0000E17      4.0000         4.0000         6429.8         -599.08-2530.1i                -1214.9-5130.9i                250.77-1024.3i
-0.023941       -0.057798      -0.15000       -0.023941      -0.057798      -0.15000       2747.6         0.0034527      -8.8036E-4     -7.9132E-5     1.3968E-4      0.070895       -0.0025353     3.0000E17      4.0000         4.0000         7002.1         -341.95-2388.7i                -1410.8-5658.7i                509.05-1171.2i
-0.032528       -0.053438      -0.14479       -0.032528      -0.053438      -0.14479       2218.9         0.0027883      -9.5627E-4     -1.3876E-4     1.8308E-4      0.071562       -0.0022463     3.0000E17      4.0000         4.0000         7041.0         -276.13-2238.0i                -3133.5-3776.3i                111.64-859.91i
-0.028969       -0.055449      -0.14479       -0.028969      -0.055449      -0.14479       2356.7         0.0029616      -9.4725E-4     -1.1688E-4     1.5268E-4      0.071562       -0.0022463     3.0000E17      4.0000         4.0000         7331.7         -140.50-2112.3i                -3081.9-4271.4i                227.50-1020.6i
-0.025283       -0.057224      -0.14479       -0.025283      -0.057224      -0.14479       2181.6         0.0027415      -9.2328E-4     -4.4294E-5     7.8653E-5      0.071562       -0.0022463     3.0000E17      4.0000         4.0000         7749.2         138.43-1888.5i                 -3381.8-4548.2i                352.50-1115.8i
-0.030257       -0.054757      -0.13958       -0.030257      -0.054757      -0.13958       1859.3         0.0023365      -9.6688E-4     -5.2638E-5     5.7936E-5      0.071886       -0.0017282     3.0000E17      4.0000         4.0000         8882.5         34.697-1685.0i                 -5127.6-3294.1i                134.43-976.80i
-0.026618       -0.056615      -0.13958       -0.026618      -0.056615      -0.13958       1850.0         0.0023248      -9.5543E-4     -1.2798E-5     1.8362E-5      0.071886       -0.0017282     3.0000E17      4.0000         4.0000         9114.7         401.55-1386.7i                 -5127.2-3619.0i                323.98-1089.2i
-0.027943       -0.055973      -0.13438       -0.027943      -0.055973      -0.13438       1724.7         0.0021673      -9.9355E-4     -1.5963E-5     -4.5234E-5     0.072210       -0.0012101     3.0000E17      4.0000         4.0000         11063          165.04-878.74i                 -7655.1-2587.4i                159.72-853.95i
-0.035487       -0.051520      -0.13597       -0.035487      -0.051520      -0.13597       1683.3         0.0021153      -9.6328E-4     -5.6813E-5     1.7120E-5      0.072111       -0.0013685     3.0000E17      4.0000         4.0000         10778          -1585.1-1061.7i                -7345.9-2089.2i                67.755-763.42i
-0.034021       -0.052501      -0.14038       -0.034021      -0.052501      -0.14038       1852.2         0.0023276      -9.5332E-4     -8.0371E-5     8.5824E-5      0.071836       -0.0018074     3.0000E17      4.0000         4.0000         8921.0         -799.77-1752.0i                -5277.3-2984.7i                92.397-829.42i
-0.031784       -0.053886      -0.13517       -0.031784      -0.053886      -0.13517       1702.9         0.0021399      -9.7875E-4     -3.7993E-5     -2.0470E-5     0.072161       -0.0012894     3.0000E17      4.0000         4.0000         10757          -612.48-1048.3i                -7416.6-2121.1i                83.558-829.02i
-0.036768       -0.050615      -0.13256       -0.036768      -0.050615      -0.13256       1728.8         0.0021724      -9.9221E-4     -9.1698E-5     -3.7939E-6     0.072323       -0.0010290     3.0000E17      4.0000         4.0000         12235          -2208.3-403.20i                -8744.4-1619.1i                -18.255-747.29i
-0.033109       -0.053081      -0.13176       -0.033109      -0.053081      -0.13176       1760.8         0.0022126      -0.0010100     -8.0654E-5     -4.6152E-5     0.072373       -9.4979E-4     3.0000E17      4.0000         4.0000         12620          -1339.7-213.37i                -9177.0-1040.3i                -14.882-706.35i
-0.029311       -0.055269      -0.13096       -0.029311      -0.055269      -0.13096       1793.3         0.0022535      -0.0010257     -8.1811E-5     -8.2586E-5     0.072423       -8.7053E-4     3.0000E17      4.0000         4.0000         13312          -594.52-283.78i                -9997.8-1453.6i                -12.889-628.69i
-0.034420       -0.052241      -0.12835       -0.034420      -0.052241      -0.12835       1815.2         0.0022810      -0.0010373     -1.1926E-4     -9.1386E-5     0.072585       -6.1024E-4     3.0000E17      4.0000         4.0000         14572          -2067.7+557.31i                -10773-505.41i                 -56.972-791.85i
-0.030666       -0.054529      -0.12755       -0.030666      -0.054529      -0.12755       1846.9         0.0023209      -0.0010504     -1.1863E-4     -1.3081E-4     0.072635       -5.3098E-4     3.0000E17      4.0000         4.0000         15646          -1372.4+396.40i                -11989-548.71i                 -43.066-641.40i
-0.032007       -0.053753      -0.12414       -0.032007      -0.053753      -0.12414       2007.9         0.0025233      -0.0011197     -1.8417E-4     -1.9289E-4     0.072847       -1.9144E-4     3.0000E17      4.0000         4.0000         18252          -2364.6+1413.3i                -14203+545.53i                 -68.935-697.24i
-0.020107       -0.059241      -0.15000       -0.020107      -0.059241      -0.15000       2981.8         0.0037470      -8.5374E-4     5.2516E-6      8.1423E-5      0.070895       -0.0025353     3.0000E17      4.0000         4.0000         7853.8         -297.06-2245.2i                -875.05-6613.7i                836.24-1285.4i
-0.016195       -0.060428      -0.15000       -0.016195      -0.060428      -0.15000       2904.7         0.0036501      -8.4712E-4     9.7426E-5      1.9502E-5      0.070895       -0.0025353     3.0000E17      4.0000         4.0000         8371.6         -205.78-1941.7i                -768.05-7247.0i                873.07-1308.3i
-0.021648       -0.058695      -0.14553       -0.021648      -0.058695      -0.14553       2210.8         0.0027782      -9.0687E-4     -1.4507E-5     4.5393E-5      0.071498       -0.0023076     3.0000E17      4.0000         4.0000         7636.4         659.16-2001.2i                 -2383.4-5198.6i                619.77-1216.3i
-0.017769       -0.059984      -0.14553       -0.017769      -0.059984      -0.14553       2328.4         0.0029260      -8.9614E-4     5.7746E-5      -2.5990E-6     0.071498       -0.0023077     3.0000E17      4.0000         4.0000         8322.0         684.79-1794.3i                 -1729.0-6238.6i                868.65-1334.0i
-0.013812       -0.061017      -0.14553       -0.013812      -0.061017      -0.14553       2160.2         0.0027146      -8.8736E-4     1.5014E-4      -6.7149E-5     0.071498       -0.0023077     3.0000E17      4.0000         4.0000         8860.6         857.05-1551.9i                 -1555.1-6880.0i                997.14-1347.1i
-0.019345       -0.059495      -0.14106       -0.019345      -0.059495      -0.14106       1856.4         0.0023328      -9.4818E-4     2.3217E-5      -2.5482E-5     0.071794       -0.0018748     3.0000E17      4.0000         4.0000         8516.0         1519.6-1651.9i                 -3279.0-4735.9i                666.80-1229.0i
-0.015421       -0.060630      -0.14106       -0.015421      -0.060630      -0.14106       1820.9         0.0022882      -9.4235E-4     1.0217E-4      -7.4947E-5     0.071794       -0.0018748     3.0000E17      4.0000         4.0000         9084.6         1558.7-1410.8i                 -2477.3-5897.5i                982.49-1370.9i
-0.017031       -0.060197      -0.13659       -0.017031      -0.060197      -0.13659       1689.4         0.0021229      -9.9303E-4     4.8633E-5      -8.1697E-5     0.072073       -0.0014300     3.0000E17      4.0000         4.0000         9442.5         2221.2-1202.6i                 -3952.0-4342.2i                755.01-1149.8i
-0.024346       -0.057627      -0.13511       -0.024346      -0.057627      -0.13511       1728.4         0.0021720      -0.0010004     -7.2227E-6     -4.4809E-5     0.072164       -0.0012833     3.0000E17      4.0000         4.0000         10229          1088.7-942.41i                 -6645.1-3045.8i                334.79-929.88i
-0.023001       -0.058178      -0.14032       -0.023001      -0.058178      -0.14032       1843.6         0.0023167      -9.5498E-4     1.1547E-6      -6.3190E-6     0.071840       -0.0018015     3.0000E17      4.0000         4.0000         8688.7         1093.9-1462.4i                 -4561.9-3778.8i                425.43-1090.1i
-0.020708       -0.059035      -0.13585       -0.020708      -0.059035      -0.13585       1719.1         0.0021603      -0.0010002     1.8212E-5      -5.9143E-5     0.072119       -0.0013568     3.0000E17      4.0000         4.0000         9503.4         1924.9-1276.5i                 -5559.4-3449.0i                440.95-967.17i
-0.013825       -0.061012      -0.13890       -0.013825      -0.061012      -0.13890       1705.0         0.0021426      -9.7540E-4     1.0586E-4      -9.5090E-5     0.071928       -0.0016601     3.0000E17      4.0000         4.0000         9417.0         1855.0-1257.1i                 -2933.2-5308.8i                1027.9-1398.5i
-0.012220       -0.061355      -0.14337       -0.012220      -0.061355      -0.14337       1899.2         0.0023866      -9.2399E-4     1.6330E-4      -9.5302E-5     0.071650       -0.0021050     3.0000E17      4.0000         4.0000         9089.5         1257.8-1494.6i                 -1771.1-6615.3i                1006.3-1394.5i
-0.010636       -0.061651      -0.14121       -0.010636      -0.061651      -0.14121       1727.4         0.0021707      -9.6176E-4     1.6987E-4      -1.1840E-4     0.071785       -0.0018904     3.0000E17      4.0000         4.0000         9334.2         1637.6-1417.8i                 -2191.3-6059.8i                1121.8-1488.1i
-0.024088       -0.057735      -0.13072       -0.024088      -0.057735      -0.13072       1810.9         0.0022757      -0.0010274     -5.9643E-5     -1.0338E-4     0.072438       -8.4577E-4     3.0000E17      4.0000         4.0000         12206          1483.3-232.74i                 -8184.3-1469.0i                179.96-764.38i