% Model:              Beers_Helicon_v1.mph
% Version:            COMSOL 5.3.1.275
% Date:               Aug 6 2020, 15:08
% Dimension:          3
% Nodes:              3421
% Expressions:        17
% Description:        x-coordinate, y-coordinate, z-coordinate, Magnetic field norm, Magnetic flux density norm, , , , Br from 2D model, r coordinate, quasilneutral density, electron temperature, ion temperature, Electric field norm, Electric field, x component, Electric field, y component, Electric field, z component
% Length unit:        m
% x             y              z              x (m)          y (m)          z (m)          emw.normH (A/m) emw.normB (T)  real(emw.Bx) (T) real(emw.By) (T) real(emw.Bz) (T) Bz (T)         Br (T)         ni (1/m^3)     Te (eV)        Ti (eV)        emw.normE (V/m) emw.Ex (V/m)                   emw.Ey (V/m)                   emw.Ez (V/m)
-0.062560       0.0000         -0.13494       -0.062560      0.0000         -0.13494       1477.9         0.0018572      -8.8457E-4     -0.0011554     -4.0191E-4     0.072175       -0.0012661     1.5000E18      4.0000         4.0000         8779.5         -537.41-5601.7i                -1217.2-209.57i                888.80+1090.5i
-0.062560       0.0000         -0.13996       -0.062560      0.0000         -0.13996       1434.4         0.0018025      -7.4190E-4     -0.0011803     -2.7047E-4     0.071863       -0.0017655     1.5000E18      4.0000         4.0000         6943.2         1362.2-3238.5i                 -895.78-190.11i                1068.4+1348.6i
-0.062560       0.0000         -0.14498       -0.062560      0.0000         -0.14498       1439.8         0.0018093      -6.1547E-4     -0.0012271     -7.9946E-5     0.071550       -0.0022650     1.5000E18      4.0000         4.0000         5532.1         2559.6-1621.5i                 -522.49-122.02i                1090.7+1328.7i
-0.062560       0.0000         -0.15000       -0.062560      0.0000         -0.15000       1582.2         0.0019882      -5.0676E-4     -0.0012358     1.2590E-4      0.070895       -0.0025353     1.5000E18      4.0000         4.0000         4843.1         3836.3+78.167i                 -61.870-44.965i                1182.4+1358.6i
-0.062436       -0.0039936     -0.13636       -0.062436      -0.0039936     -0.13636       1381.0         0.0017354      -6.8392E-4     -0.0010726     -4.2298E-4     0.072087       -0.0014074     1.5000E18      4.0000         4.0000         7907.7         62.347-4939.6i                 -1158.3-335.49i                952.48+1037.1i
-0.062436       -0.0039936     -0.14138       -0.062436      -0.0039936     -0.14138       1362.3         0.0017119      -5.5057E-4     -0.0011224     -2.3117E-4     0.071775       -0.0019069     1.5000E18      4.0000         4.0000         6145.5         1527.3-2898.0i                 -736.72-166.15i                1060.9+1177.8i
-0.062436       -0.0039936     -0.14640       -0.062436      -0.0039936     -0.14640       1432.9         0.0018006      -4.3725E-4     -0.0011429     -3.3293E-5     0.071381       -0.0023522     1.5000E18      4.0000         4.0000         4797.1         2898.6-1113.9i                 -216.27-0.45795i               1126.4+1168.8i
-0.062036       -0.0080565     -0.13778       -0.062036      -0.0080565     -0.13778       1314.7         0.0016521      -5.1006E-4     -0.0010235     -3.9382E-4     0.071998       -0.0015483     1.5000E18      4.0000         4.0000         7101.6         491.62-4486.1i                 -1047.7-392.16i                942.33+925.25i
-0.062036       -0.0080565     -0.14280       -0.062036      -0.0080565     -0.14280       1318.8         0.0016573      -3.8257E-4     -0.0010448     -1.9054E-4     0.071686       -0.0020476     1.5000E18      4.0000         4.0000         5429.6         1932.2-2379.7i                 -477.87-127.48i                1090.0+978.57i
-0.061361       -0.012189      -0.13920       -0.061361      -0.012189      -0.13920       1249.4         0.0015700      -3.5447E-4     -9.6115E-4     -3.8233E-4     0.071910       -0.0016896     1.5000E18      4.0000         4.0000         6374.8         1062.4-3896.6i                 -557.09-804.39i                995.02+753.04i
-0.062426       -0.0040945     -0.15000       -0.062426      -0.0040945     -0.15000       1621.2         0.0020372      -4.0688E-4     -0.0011425     1.3572E-4      0.070895       -0.0025353     1.5000E18      4.0000         4.0000         4641.9         3710.6-91.611i                 243.19-6.0042i                 1201.8+1149.1i
-0.062025       -0.0081628     -0.15000       -0.062025      -0.0081628     -0.15000       1562.4         0.0019633      -2.9592E-4     -0.0010824     1.3018E-4      0.070895       -0.0025353     1.5000E18      4.0000         4.0000         4370.8         3506.9-354.71i                 461.74-46.703i                 1171.6+901.46i
-0.061358       -0.012205      -0.15000       -0.061358      -0.012205      -0.15000       1444.3         0.0018149      -1.7841E-4     -9.6936E-4     8.0569E-5      0.070895       -0.0025353     1.5000E18      4.0000         4.0000         4240.5         3348.9-778.34i                 666.09-154.85i                 1160.5+664.05i
-0.062031       -0.0081097     -0.14640       -0.062031      -0.0081097     -0.14640       1425.8         0.0017917      -3.4423E-4     -0.0010544     -3.1694E-5     0.071381       -0.0023518     1.5000E18      4.0000         4.0000         4761.2         2799.5-1308.7i                 10.623-96.764i                 1157.3+914.07i
-0.061359       -0.012199      -0.14640       -0.061359      -0.012199      -0.14640       1332.7         0.0016747      -2.3002E-4     -9.5718E-4     -7.8991E-5     0.071381       -0.0023519     1.5000E18      4.0000         4.0000         4687.2         2688.6-1711.5i                 245.73-350.42i                 1152.9+671.64i
-0.061360       -0.012194      -0.14280       -0.061360      -0.012194      -0.14280       1260.8         0.0015844      -2.8138E-4     -9.4554E-4     -2.3780E-4     0.071686       -0.0020478     1.5000E18      4.0000         4.0000         5513.3         2023.2-2646.2i                 -149.84-556.02i                1145.4+679.25i
-0.060428       -0.016195      -0.15000       -0.060428      -0.016195      -0.15000       1276.6         0.0016043      -1.2702E-4     -8.0307E-4     5.2405E-5      0.070895       -0.0025353     1.5000E18      4.0000         4.0000         4046.4         3058.0-1133.4i                 819.34-303.66i                 1040.4+655.42i
-0.059241       -0.020107      -0.15000       -0.059241      -0.020107      -0.15000       1188.0         0.0014929      -1.0503E-4     -6.8169E-4     6.8153E-5      0.070895       -0.0025353     1.5000E18      4.0000         4.0000         3831.8         2744.9-1319.0i                 931.86-447.77i                 925.63+651.13i
-0.057798       -0.023941      -0.15000       -0.057798      -0.023941      -0.15000       1067.4         0.0013414      -6.8606E-5     -5.2387E-4     7.6693E-5      0.070895       -0.0025353     1.5000E18      4.0000         4.0000         3830.4         2542.9-1419.4i                 1053.5-535.68i                 815.50+517.08i
-0.060439       -0.016157      -0.14640       -0.060439      -0.016157      -0.14640       1189.8         0.0014952      -1.7740E-4     -8.1161E-4     -1.0262E-4     0.071381       -0.0023520     1.5000E18      4.0000         4.0000         4513.5         2464.8-2009.0i                 440.36-642.09i                 1047.2+658.29i
-0.059262       -0.020037      -0.14640       -0.059262      -0.020037      -0.14640       1066.8         0.0013406      -1.4066E-4     -6.7687E-4     -9.0307E-5     0.071381       -0.0023518     1.5000E18      4.0000         4.0000         4170.6         2128.8-2163.1i                 539.02-797.46i                 909.65+603.86i
-0.060450       -0.016119      -0.14280       -0.060450      -0.016119      -0.14280       1127.4         0.0014168      -2.4042E-4     -8.0828E-4     -2.5240E-4     0.071686       -0.0020480     1.5000E18      4.0000         4.0000         5245.1         1686.9-2985.5i                 93.273-1016.9i                 987.59+659.25i
-0.052017       -0.034757      -0.15000       -0.052017      -0.034757      -0.15000       887.50         0.0011153      -3.2802E-4     -1.2224E-4     1.6569E-4      0.070895       -0.0025353     1.5000E18      4.0000         4.0000         3520.0         1393.6-2189.9i                 928.57-1440.4i                 585.07-40.811i
-0.049630       -0.038086      -0.15000       -0.049630      -0.038086      -0.15000       915.30         0.0011502      -5.5203E-4     -8.0241E-5     1.9908E-4      0.070895       -0.0025353     1.5000E18      4.0000         4.0000         3325.0         871.95-2313.6i                 669.05-1775.3i                 399.88-57.445i
-0.047037       -0.041247      -0.15000       -0.047037      -0.041247      -0.15000       915.12         0.0011500      -6.9726E-4     -3.5459E-5     2.3142E-4      0.070895       -0.0025353     1.5000E18      4.0000         4.0000         3241.5         575.22-2275.7i                 504.46-1995.8i                 227.84-54.616i
-0.044237       -0.044237      -0.15000       -0.044237      -0.044237      -0.15000       940.86         0.0011823      -8.7038E-4     9.1212E-6      2.7797E-4      0.070895       -0.0025353     1.5000E18      4.0000         4.0000         3421.5         157.71-2382.4i                 229.62-2373.1i                 -1.1782-76.093i
-0.050579       -0.036818      -0.14658       -0.050579      -0.036818      -0.14658       786.58         9.8844E-4      -3.9369E-4     -7.3666E-5     3.5274E-5      0.071356       -0.0023613     1.5000E18      4.0000         4.0000         3698.0         847.27-2512.8i                 573.48-2037.4i                 495.69-43.568i
-0.048061       -0.040048      -0.14658       -0.048061      -0.040048      -0.14658       797.81         0.0010026      -5.7571E-4     -2.2748E-5     6.6762E-5      0.071356       -0.0023613     1.5000E18      4.0000         4.0000         3874.8         359.75-2604.0i                 252.92-2361.1i                 318.88-7.7156i
-0.045337       -0.043109      -0.14658       -0.045337      -0.043109      -0.14658       799.38         0.0010045      -7.3439E-4     4.5758E-5      8.7647E-5      0.071356       -0.0023613     1.5000E18      4.0000         4.0000         4025.7         -91.279-2701.1i                43.164-2664.4i                 107.80-44.503i
-0.049056       -0.038824      -0.14317       -0.049056      -0.038824      -0.14317       740.61         9.3068E-4      -4.4828E-4     -3.4773E-5     -1.0065E-4     0.071663       -0.0020844     1.5000E18      4.0000         4.0000         4338.6         308.13-2779.2i                 178.92-2666.1i                 416.88-35.280i
-0.046407       -0.041955      -0.14317       -0.046407      -0.041955      -0.14317       739.12         9.2881E-4      -6.3255E-4     4.7361E-5      -8.9961E-5     0.071663       -0.0020845     1.5000E18      4.0000         4.0000         4718.9         -381.44-3048.2i                -189.41-2940.7i                176.71-23.606i
-0.047447       -0.040774      -0.13975       -0.047447      -0.040774      -0.13975       755.02         9.4879E-4      -5.4801E-4     9.6564E-6      -2.6474E-4     0.071876       -0.0017445     1.5000E18      4.0000         4.0000         5277.1         -550.60-3242.5i                -288.18-3247.2i                195.65-71.165i
-0.041247       -0.047037      -0.15000       -0.041247      -0.047037      -0.15000       1091.5         0.0013716      -0.0010144     -1.2078E-4     3.2097E-4      0.070895       -0.0025353     1.5000E18      4.0000         4.0000         3477.4         -40.402-2251.8i                -46.069-2567.7i                -121.88-7.3183i
-0.038086       -0.049630      -0.15000       -0.038086      -0.049630      -0.15000       1177.2         0.0014793      -0.0010978     -1.8689E-4     3.3759E-4      0.070895       -0.0025353     1.5000E18      4.0000         4.0000         3571.9         -167.88-2109.5i                -218.79-2749.3i                -179.62+58.008i
-0.034757       -0.052017      -0.15000       -0.034757      -0.052017      -0.15000       1191.3         0.0014970      -0.0011030     -1.8841E-4     3.2490E-4      0.070895       -0.0025353     1.5000E18      4.0000         4.0000         3801.2         -268.41-2011.9i                -443.42-3060.3i                -221.16+145.78i
-0.042564       -0.045849      -0.14559       -0.042564      -0.045849      -0.14559       875.11         0.0010997      -9.0502E-4     -3.0513E-6     7.8152E-5      0.071490       -0.0023107     1.5000E18      4.0000         4.0000         4366.1         -273.45-2288.9i                -479.70-3048.0i                -76.618-37.946i
-0.039474       -0.048534      -0.14559       -0.039474      -0.048534      -0.14559       978.69         0.0012299      -0.0010115     -9.7700E-5     1.1559E-4      0.071490       -0.0023107     1.5000E18      4.0000         4.0000         4374.8         -338.31-2089.9i                -703.97-3135.8i                -142.62+66.545i
-0.036215       -0.051012      -0.14559       -0.036215      -0.051012      -0.14559       1020.7         0.0012827      -0.0010591     -1.2429E-4     1.0465E-4      0.071490       -0.0023107     1.5000E18      4.0000         4.0000         4526.6         -442.45-1950.2i                -967.17-3398.6i                -193.55+138.67i
-0.040835       -0.047395      -0.14118       -0.040835      -0.047395      -0.14118       872.72         0.0010967      -9.3280E-4     -2.0662E-5     -1.3240E-4     0.071787       -0.0018867     1.5000E18      4.0000         4.0000         5377.2         -584.99-2085.7i                -1172.6-3652.7i                -111.70+4.5805i
-0.037646       -0.049965      -0.14118       -0.037646      -0.049965      -0.14118       940.18         0.0011815      -0.0010071     -8.2920E-5     -1.1971E-4     0.071787       -0.0018867     1.5000E18      4.0000         4.0000         5410.0         -670.47-1896.8i                -1461.3-3685.4i                -157.12+147.00i
-0.039051       -0.048875      -0.13677       -0.039051      -0.048875      -0.13677       944.29         0.0011866      -9.7063E-4     -7.8301E-5     -3.3458E-4     0.072061       -0.0014478     1.5000E18      4.0000         4.0000         6500.2         -849.46-1938.8i                -1862.2-4278.2i                -170.08+94.329i
-0.044815       -0.043650      -0.13875       -0.044815      -0.043650      -0.13875       805.60         0.0010123      -7.1518E-4     -4.6642E-6     -3.2080E-4     0.071938       -0.0016456     1.5000E18      4.0000         4.0000         5674.7         -983.63-2987.6i                -897.11-3512.0i                26.634+14.496i
-0.043704       -0.044763      -0.14217       -0.043704      -0.044763      -0.14217       808.11         0.0010155      -7.9801E-4     1.8415E-5      -1.3407E-4     0.071725       -0.0019856     1.5000E18      4.0000         4.0000         5019.3         -645.32-2639.6i                -681.75-3349.8i                -2.4459-64.538i
-0.042017       -0.046351      -0.13776       -0.042017      -0.046351      -0.13776       870.59         0.0010940      -8.5065E-4     -4.9498E-5     -3.3930E-4     0.072000       -0.0015467     1.5000E18      4.0000         4.0000         6047.6         -934.05-2361.7i                -1407.0-3951.5i                -69.654+53.386i
-0.012205       -0.061358      -0.15000       -0.012205      -0.061358      -0.15000       1373.1         0.0017255      -0.0012911     1.0274E-4      4.2515E-5      0.070895       -0.0025353     1.5000E18      4.0000         4.0000         5020.0         -302.63-915.59i                -1621.9-4446.8i                75.507-351.23i
-0.0081628      -0.062025      -0.15000       -0.0081628     -0.062025      -0.15000       1546.7         0.0019436      -0.0014649     2.0755E-4      -3.1466E-5     0.070895       -0.0025353     1.5000E18      4.0000         4.0000         5318.4         -258.11-610.34i                -1960.4-4635.5i                -12.730-470.82i
-0.0040945      -0.062426      -0.15000       -0.0040945     -0.062426      -0.15000       1618.3         0.0020336      -0.0016130     2.0762E-4      -6.2576E-5     0.070895       -0.0025353     1.5000E18      4.0000         4.0000         5468.9         -146.17-306.78i                -2230.3-4680.7i                -129.47-517.02i
0.0000          -0.062560      -0.15000       0.0000         -0.062560      -0.15000       1645.6         0.0020679      -0.0018015     1.3806E-4      -5.7507E-5     0.070895       -0.0025353     1.5000E18      4.0000         4.0000         5838.3         7.3301-146.88i                 -2549.6-4804.1i                -230.02-712.29i
-0.010618       -0.061652      -0.14784       -0.010618      -0.061652      -0.14784       1314.1         0.0016514      -0.0013523     1.4190E-4      -4.0548E-5     0.071186       -0.0024254     1.5000E18      4.0000         4.0000         5332.6         -183.39-827.78i                -1803.6-4301.7i                41.861-424.15i
-0.0065501      -0.062216      -0.14784       -0.0065501     -0.062216      -0.14784       1463.1         0.0018386      -0.0015318     1.9108E-4      -8.7233E-5     0.071186       -0.0024254     1.5000E18      4.0000         4.0000         5589.0         -102.83-502.07i                -2114.0-4461.6i                -56.702-524.59i
-0.0024562      -0.062513      -0.14784       -0.0024562     -0.062513      -0.14784       1533.0         0.0019265      -0.0017217     1.5673E-4      -9.0619E-5     0.071186       -0.0024255     1.5000E18      4.0000         4.0000         5808.1         20.412-320.73i                 -2416.2-4540.9i                -149.35-681.04i
-0.0090374      -0.061904      -0.14569       -0.0090374     -0.061904      -0.14569       1285.5         0.0016153      -0.0014153     1.4279E-4      -9.7758E-5     0.071477       -0.0023156     1.5000E18      4.0000         4.0000         5665.9         -78.928-733.46i                -1961.2-4136.5i                7.4817-471.11i
-0.0049441      -0.062364      -0.14569       -0.0049441     -0.062364      -0.14569       1430.4         0.0017975      -0.0016403     1.6837E-4      -1.2372E-4     0.071477       -0.0023156     1.5000E18      4.0000         4.0000         5922.8         31.430-464.55i                 -2296.3-4263.8i                -81.997-646.10i
-0.0074637      -0.062113      -0.14353       -0.0074637     -0.062113      -0.14353       1305.9         0.0016411      -0.0015102     1.5146E-4      -1.4566E-4     0.071641       -0.0021205     1.5000E18      4.0000         4.0000         5978.6         19.331-657.37i                 -2133.3-3887.4i                -7.1835-534.48i
-0.031278       -0.054180      -0.15000       -0.031278      -0.054180      -0.15000       1304.6         0.0016395      -0.0011205     -2.1341E-4     3.0008E-4      0.070895       -0.0025353     1.5000E18      4.0000         4.0000         3821.4         -324.67-1838.4i                -562.32-3184.1i                -150.99+85.603i
-0.027672       -0.056107      -0.15000       -0.027672      -0.056107      -0.15000       1355.1         0.0017029      -0.0011559     -1.9998E-4     2.7981E-4      0.070895       -0.0025353     1.5000E18      4.0000         4.0000         3952.7         -359.40-1681.6i                -728.83-3410.1i                -128.40-0.62642i
-0.023941       -0.057798      -0.15000       -0.023941      -0.057798      -0.15000       1333.3         0.0016755      -0.0011547     -1.4578E-4     2.0720E-4      0.070895       -0.0025353     1.5000E18      4.0000         4.0000         4263.7         -255.77-1558.3i                -933.86-3738.1i                14.335-84.394i
-0.032528       -0.053438      -0.14479       -0.032528      -0.053438      -0.14479       1074.1         0.0013497      -0.0010889     -1.2196E-4     6.1007E-5      0.071562       -0.0022463     1.5000E18      4.0000         4.0000         4679.8         -215.72-1700.9i                -1206.0-3186.6i                -199.79+115.80i
-0.028969       -0.055449      -0.14479       -0.028969      -0.055449      -0.14479       1166.5         0.0014658      -0.0011361     -1.4173E-4     6.1321E-5      0.071562       -0.0022463     1.5000E18      4.0000         4.0000         4771.5         -185.24-1523.2i                -1299.5-3346.2i                -148.68+30.947i
-0.025283       -0.057224      -0.14479       -0.025283      -0.057224      -0.14479       1182.4         0.0014859      -0.0011610     -1.1329E-4     -1.4765E-6     0.071562       -0.0022463     1.5000E18      4.0000         4.0000         5021.1         46.554-1376.6i                 -1494.7-3529.8i                -63.511-46.362i
-0.030257       -0.054757      -0.13958       -0.030257      -0.054757      -0.13958       1066.6         0.0013403      -0.0011151     -9.2573E-5     -1.9005E-4     0.071886       -0.0017282     1.5000E18      4.0000         4.0000         5756.0         -106.55-1381.6i                -1936.6-3232.2i                -187.43+76.429i
-0.026618       -0.056615      -0.13958       -0.026618      -0.056615      -0.13958       1131.8         0.0014222      -0.0011586     -9.3924E-5     -2.1051E-4     0.071886       -0.0017282     1.5000E18      4.0000         4.0000         5945.6         243.71-1195.5i                 -2030.9-3366.7i                -63.994-14.292i
-0.027943       -0.055973      -0.13438       -0.027943      -0.055973      -0.13438       1190.2         0.0014956      -0.0011883     -1.4268E-4     -4.5585E-4     0.072210       -0.0012101     1.5000E18      4.0000         4.0000         6934.9         325.86-1155.1i                 -2734.6-3454.1i                -24.079+54.707i
-0.035487       -0.051520      -0.13597       -0.035487      -0.051520      -0.13597       1044.6         0.0013127      -0.0010607     -1.1892E-4     -4.0567E-4     0.072111       -0.0013685     1.5000E18      4.0000         4.0000         6528.4         -665.01-1491.4i                -2241.2-3630.7i                -144.88+94.453i
-0.034021       -0.052501      -0.14038       -0.034021      -0.052501      -0.14038       1009.7         0.0012688      -0.0010590     -9.2811E-5     -1.8290E-4     0.071836       -0.0018074     1.5000E18      4.0000         4.0000         5560.2         -446.43-1604.9i                -1783.3-3418.8i                -169.64+116.46i
-0.031784       -0.053886      -0.13517       -0.031784      -0.053886      -0.13517       1117.3         0.0014041      -0.0011309     -1.3354E-4     -4.4070E-4     0.072161       -0.0012894     1.5000E18      4.0000         4.0000         6662.8         -303.81-1214.1i                -2460.5-3313.5i                -132.15+72.096i
-0.036768       -0.050615      -0.13256       -0.036768      -0.050615      -0.13256       1138.9         0.0014312      -0.0011011     -2.4267E-4     -5.5131E-4     0.072323       -0.0010290     1.5000E18      4.0000         4.0000         7334.3         -722.01-1328.7i                -2524.4-3914.9i                -185.92+78.924i
-0.033109       -0.053081      -0.13176       -0.033109      -0.053081      -0.13176       1248.5         0.0015689      -0.0012077     -2.7634E-4     -6.1985E-4     0.072373       -9.4979E-4     1.5000E18      4.0000         4.0000         7605.3         -445.79-877.49i                -2870.3-3164.1i                -130.12+115.23i
-0.029311       -0.055269      -0.13096       -0.029311      -0.055269      -0.13096       1341.4         0.0016856      -0.0012703     -3.3713E-4     -6.6097E-4     0.072423       -8.7053E-4     1.5000E18      4.0000         4.0000         7805.2         171.14-981.71i                 -3348.0-3448.1i                34.274+83.789i
-0.034420       -0.052241      -0.12835       -0.034420      -0.052241      -0.12835       1363.8         0.0017138      -0.0012382     -3.9763E-4     -7.9796E-4     0.072585       -6.1024E-4     1.5000E18      4.0000         4.0000         8553.8         -616.61-499.34i                -3384.8-3337.8i                -172.95+71.555i
-0.030666       -0.054529      -0.12755       -0.030666      -0.054529      -0.12755       1483.7         0.0018644      -0.0013146     -4.6831E-4     -8.6673E-4     0.072635       -5.3098E-4     1.5000E18      4.0000         4.0000         8781.6         -8.2427-715.83i                -3974.5-3366.1i                39.250+120.82i
-0.032007       -0.053753      -0.12414       -0.032007      -0.053753      -0.12414       1712.3         0.0021518      -0.0014371     -6.4688E-4     -0.0011089     0.072847       -1.9144E-4     1.5000E18      4.0000         4.0000         10020          -279.61-142.15i                -4676.0-3299.6i                -49.490+80.409i
-0.020107       -0.059241      -0.15000       -0.020107      -0.059241      -0.15000       1407.2         0.0017684      -0.0011938     -9.3494E-5     1.7170E-4      0.070895       -0.0025353     1.5000E18      4.0000         4.0000         4501.7         -377.36-1358.1i                -1111.6-4000.4i                121.63-196.16i
-0.016195       -0.060428      -0.15000       -0.016195      -0.060428      -0.15000       1394.3         0.0017521      -0.0012472     -2.5175E-5     1.3154E-4      0.070895       -0.0025353     1.5000E18      4.0000         4.0000         4700.7         -360.65-1123.8i                -1346.1-4194.5i                76.364-265.64i
-0.021648       -0.058695      -0.14553       -0.021648      -0.058695      -0.14553       1202.4         0.0015110      -0.0011870     -8.4068E-5     6.0693E-6      0.071498       -0.0023076     1.5000E18      4.0000         4.0000         5034.6         -26.079-1254.4i                -1355.3-3588.1i                76.074-134.11i
-0.017769       -0.059984      -0.14553       -0.017769      -0.059984      -0.14553       1248.7         0.0015691      -0.0012415     -2.6737E-5     -6.9252E-6     0.071498       -0.0023077     1.5000E18      4.0000         4.0000         5230.0         -104.93-1055.4i                -1519.0-3833.1i                103.14-227.09i
-0.013812       -0.061017      -0.14553       -0.013812      -0.061017      -0.14553       1229.8         0.0015454      -0.0012870     4.6799E-5      -5.8952E-5     0.071498       -0.0023077     1.5000E18      4.0000         4.0000         5407.0         -62.675-915.08i                -1730.3-4026.3i                87.296-299.56i
-0.019345       -0.059495      -0.14106       -0.019345      -0.059495      -0.14106       1160.4         0.0014583      -0.0012369     -5.0520E-5     -1.6842E-4     0.071794       -0.0018748     1.5000E18      4.0000         4.0000         5839.6         145.72-964.92i                 -1734.6-3391.6i                91.015-168.99i
-0.015421       -0.060630      -0.14106       -0.015421      -0.060630      -0.14106       1177.1         0.0014792      -0.0012878     3.1951E-5      -1.8263E-4     0.071794       -0.0018748     1.5000E18      4.0000         4.0000         6020.2         126.56-883.96i                 -1880.0-3688.4i                108.74-272.39i
-0.017031       -0.060197      -0.13659       -0.017031      -0.060197      -0.13659       1194.2         0.0015006      -0.0012987     -2.7047E-5     -3.3836E-4     0.072073       -0.0014300     1.5000E18      4.0000         4.0000         6691.4         292.85-781.34i                 -2049.5-3163.6i                124.35-203.10i
-0.024346       -0.057627      -0.13511       -0.024346      -0.057627      -0.13511       1207.0         0.0015167      -0.0012330     -1.2518E-4     -4.2479E-4     0.072164       -0.0012833     1.5000E18      4.0000         4.0000         6692.6         566.51-1009.7i                 -2509.3-3428.6i                70.524-37.617i
-0.023001       -0.058178      -0.14032       -0.023001      -0.058178      -0.14032       1154.4         0.0014506      -0.0012019     -9.0128E-5     -2.1588E-4     0.071840       -0.0018015     1.5000E18      4.0000         4.0000         5909.8         344.78-1063.0i                 -1919.5-3262.1i                28.476-95.180i
-0.020708       -0.059035      -0.13585       -0.020708      -0.059035      -0.13585       1203.1         0.0015118      -0.0012680     -1.0075E-4     -3.8735E-4     0.072119       -0.0013568     1.5000E18      4.0000         4.0000         6473.2         475.04-867.14i                 -2256.6-3316.2i                90.251-113.11i
-0.013825       -0.061012      -0.13890       -0.013825      -0.061012      -0.13890       1204.9         0.0015141      -0.0013469     4.7806E-5      -2.5779E-4     0.071928       -0.0016601     1.5000E18      4.0000         4.0000         6473.2         162.75-842.14i                 -2057.5-3337.4i                78.803-347.16i
-0.012220       -0.061355      -0.14337       -0.012220      -0.061355      -0.14337       1210.9         0.0015217      -0.0013358     7.6121E-5      -1.3141E-4     0.071650       -0.0021050     1.5000E18      4.0000         4.0000         5745.2         6.2720-897.12i                 -1894.5-3858.5i                57.250-367.62i
-0.010636       -0.061651      -0.14121       -0.010636      -0.061651      -0.14121       1234.3         0.0015510      -0.0014044     9.1788E-5      -1.9677E-4     0.071785       -0.0018904     1.5000E18      4.0000         4.0000         6133.7         79.383-809.17i                 -2064.2-3565.9i                43.006-414.09i
-0.024088       -0.057735      -0.13072       -0.024088      -0.057735      -0.13072       1357.5         0.0017059      -0.0012852     -3.1437E-4     -7.0076E-4     0.072438       -8.4577E-4     1.5000E18      4.0000         4.0000         8137.2         675.95-405.21i                 -2986.6-2496.8i                101.05-3.5196i