% Model:              Beers_Helicon_Sheathlayer_ModelingPaperDensity_v1.mph
% Version:            COMSOL 5.3.1.275
% Date:               Feb 8 2021, 09:38
% Dimension:          2
% Nodes:              8000
% Expressions:        17
% Description:        x-coordinate, y-coordinate, z-coordinate, quasilneutral density, Magnetic field norm, Magnetic flux density norm, electron temperature, ion temperature, , , , Electric field norm, Electric field, x component, Electric field, y component, Electric field, z component, Br from 2D model, r coordinate
% Length unit:        m
% surf3x        surf3y         x (m)          y (m)          z (m)          ni (1/m^3)     emw.normH (A/m) emw.normB (T)  Te (eV)        Ti (eV)        real(emw.Bx) (T) real(emw.By) (T) real(emw.Bz) (T) emw.normE (V/m) emw.Ex (V/m)                   emw.Ey (V/m)                   emw.Ez (V/m)                   Bz (T)         Br (T)
-0.65762        -0.062560      NaN            NaN            NaN            NaN            NaN            NaN            NaN            NaN            NaN            NaN            NaN            NaN            NaN                            NaN                            NaN                            NaN            NaN
-0.65101        -0.062560      NaN            NaN            NaN            NaN            NaN            NaN            NaN            NaN            NaN            NaN            NaN            NaN            NaN                            NaN                            NaN                            NaN            NaN
-0.64440        -0.062560      NaN            NaN            NaN            NaN            NaN            NaN            NaN            NaN            NaN            NaN            NaN            NaN            NaN                            NaN                            NaN                            NaN            NaN
-0.63779        -0.062560      NaN            NaN            NaN            NaN            NaN            NaN            NaN            NaN            NaN            NaN            NaN            NaN            NaN                            NaN                            NaN                            NaN            NaN
-0.63118        -0.062560      NaN            NaN            NaN            NaN            NaN            NaN            NaN            NaN            NaN            NaN            NaN            NaN            NaN                            NaN                            NaN                            NaN            NaN
-0.62457        -0.062560      NaN            NaN            NaN            NaN            NaN            NaN            NaN            NaN            NaN            NaN            NaN            NaN            NaN                            NaN                            NaN                            NaN            NaN
-0.61796        -0.062560      NaN            NaN            NaN            NaN            NaN            NaN            NaN            NaN            NaN            NaN            NaN            NaN            NaN                            NaN                            NaN                            NaN            NaN
-0.61135        -0.062560      NaN            NaN            NaN            NaN            NaN            NaN            NaN            NaN            NaN            NaN            NaN            NaN            NaN                            NaN                            NaN                            NaN            NaN
-0.60475        -0.062560      NaN            NaN            NaN            NaN            NaN            NaN            NaN            NaN            NaN            NaN            NaN            NaN            NaN                            NaN                            NaN                            NaN            NaN
-0.59814        -0.062560      NaN            NaN            NaN            NaN            NaN            NaN            NaN            NaN            NaN            NaN            NaN            NaN            NaN                            NaN                            NaN                            NaN            NaN
-0.59153        -0.062560      NaN            NaN            NaN            NaN            NaN            NaN            NaN            NaN            NaN            NaN            NaN            NaN            NaN                            NaN                            NaN                            NaN            NaN
-0.58492        -0.062560      NaN            NaN            NaN            NaN            NaN            NaN            NaN            NaN            NaN            NaN            NaN            NaN            NaN                            NaN                            NaN                            NaN            NaN
-0.57831        -0.062560      NaN            NaN            NaN            NaN            NaN            NaN            NaN            NaN            NaN            NaN            NaN            NaN            NaN                            NaN                            NaN                            NaN            NaN
-0.57170        -0.062560      NaN            NaN            NaN            NaN            NaN            NaN            NaN            NaN            NaN            NaN            NaN            NaN            NaN                            NaN                            NaN                            NaN            NaN
-0.56509        -0.062560      NaN            NaN            NaN            NaN            NaN            NaN            NaN            NaN            NaN            NaN            NaN            NaN            NaN                            NaN                            NaN                            NaN            NaN
-0.55848        -0.062560      NaN            NaN            NaN            NaN            NaN            NaN            NaN            NaN            NaN            NaN            NaN            NaN            NaN                            NaN                            NaN                            NaN            NaN
-0.55187        -0.062560      NaN            NaN            NaN            NaN            NaN            NaN            NaN            NaN            NaN            NaN            NaN            NaN            NaN                            NaN                            NaN                            NaN            NaN
-0.54526        -0.062560      NaN            NaN            NaN            NaN            NaN            NaN            NaN            NaN            NaN            NaN            NaN            NaN            NaN                            NaN                            NaN                            NaN            NaN
-0.53865        -0.062560      NaN            NaN            NaN            NaN            NaN            NaN            NaN            NaN            NaN            NaN            NaN            NaN            NaN                            NaN                            NaN                            NaN            NaN
-0.53204        -0.062560      NaN            NaN            NaN            NaN            NaN            NaN            NaN            NaN            NaN            NaN            NaN            NaN            NaN                            NaN                            NaN                            NaN            NaN
-0.52543        -0.062560      NaN            NaN            NaN            NaN            NaN            NaN            NaN            NaN            NaN            NaN            NaN            NaN            NaN                            NaN                            NaN                            NaN            NaN
-0.51883        -0.062560      NaN            NaN            NaN            NaN            NaN            NaN            NaN            NaN            NaN            NaN            NaN            NaN            NaN                            NaN                            NaN                            NaN            NaN
-0.51222        -0.062560      NaN            NaN            NaN            NaN            NaN            NaN            NaN            NaN            NaN            NaN            NaN            NaN            NaN                            NaN                            NaN                            NaN            NaN
-0.50561        -0.062560      NaN            NaN            NaN            NaN            NaN            NaN            NaN            NaN            NaN            NaN            NaN            NaN            NaN                            NaN                            NaN                            NaN            NaN
-0.49900        -0.062560      NaN            NaN            NaN            NaN            NaN            NaN            NaN            NaN            NaN            NaN            NaN            NaN            NaN                            NaN                            NaN                            NaN            NaN
-0.49239        -0.062560      NaN            NaN            NaN            NaN            NaN            NaN            NaN            NaN            NaN            NaN            NaN            NaN            NaN                            NaN                            NaN                            NaN            NaN
-0.48578        -0.062560      NaN            NaN            NaN            NaN            NaN            NaN            NaN            NaN            NaN            NaN            NaN            NaN            NaN                            NaN                            NaN                            NaN            NaN
-0.47917        -0.062560      NaN            NaN            NaN            NaN            NaN            NaN            NaN            NaN            NaN            NaN            NaN            NaN            NaN                            NaN                            NaN                            NaN            NaN
-0.47256        -0.062560      NaN            NaN            NaN            NaN            NaN            NaN            NaN            NaN            NaN            NaN            NaN            NaN            NaN                            NaN                            NaN                            NaN            NaN
-0.46595        -0.062560      NaN            NaN            NaN            NaN            NaN            NaN            NaN            NaN            NaN            NaN            NaN            NaN            NaN                            NaN                            NaN                            NaN            NaN
-0.45934        -0.062560      NaN            NaN            NaN            NaN            NaN            NaN            NaN            NaN            NaN            NaN            NaN            NaN            NaN                            NaN                            NaN                            NaN            NaN
-0.45273        -0.062560      NaN            NaN            NaN            NaN            NaN            NaN            NaN            NaN            NaN            NaN            NaN            NaN            NaN                            NaN                            NaN                            NaN            NaN
-0.44612        -0.062560      NaN            NaN            NaN            NaN            NaN            NaN            NaN            NaN            NaN            NaN            NaN            NaN            NaN                            NaN                            NaN                            NaN            NaN
-0.43951        -0.062560      NaN            NaN            NaN            NaN            NaN            NaN            NaN            NaN            NaN            NaN            NaN            NaN            NaN                            NaN                            NaN                            NaN            NaN
-0.43291        -0.062560      NaN            NaN            NaN            NaN            NaN            NaN            NaN            NaN            NaN            NaN            NaN            NaN            NaN                            NaN                            NaN                            NaN            NaN
-0.42630        -0.062560      NaN            NaN            NaN            NaN            NaN            NaN            NaN            NaN            NaN            NaN            NaN            NaN            NaN                            NaN                            NaN                            NaN            NaN
-0.41969        -0.062560      NaN            NaN            NaN            NaN            NaN            NaN            NaN            NaN            NaN            NaN            NaN            NaN            NaN                            NaN                            NaN                            NaN            NaN
-0.41308        -0.062560      NaN            NaN            NaN            NaN            NaN            NaN            NaN            NaN            NaN            NaN            NaN            NaN            NaN                            NaN                            NaN                            NaN            NaN
-0.40647        -0.062560      NaN            NaN            NaN            NaN            NaN            NaN            NaN            NaN            NaN            NaN            NaN            NaN            NaN                            NaN                            NaN                            NaN            NaN
-0.39986        -0.062560      NaN            NaN            NaN            NaN            NaN            NaN            NaN            NaN            NaN            NaN            NaN            NaN            NaN                            NaN                            NaN                            NaN            NaN
-0.39325        -0.062560      NaN            NaN            NaN            NaN            NaN            NaN            NaN            NaN            NaN            NaN            NaN            NaN            NaN                            NaN                            NaN                            NaN            NaN
-0.38664        -0.062560      NaN            NaN            NaN            NaN            NaN            NaN            NaN            NaN            NaN            NaN            NaN            NaN            NaN                            NaN                            NaN                            NaN            NaN
-0.38003        -0.062560      NaN            NaN            NaN            NaN            NaN            NaN            NaN            NaN            NaN            NaN            NaN            NaN            NaN                            NaN                            NaN                            NaN            NaN
-0.37342        -0.062560      NaN            NaN            NaN            NaN            NaN            NaN            NaN            NaN            NaN            NaN            NaN            NaN            NaN                            NaN                            NaN                            NaN            NaN
-0.36681        -0.062560      NaN            NaN            NaN            NaN            NaN            NaN            NaN            NaN            NaN            NaN            NaN            NaN            NaN                            NaN                            NaN                            NaN            NaN
-0.36020        -0.062560      NaN            NaN            NaN            NaN            NaN            NaN            NaN            NaN            NaN            NaN            NaN            NaN            NaN                            NaN                            NaN                            NaN            NaN
-0.35359        -0.062560      NaN            NaN            NaN            NaN            NaN            NaN            NaN            NaN            NaN            NaN            NaN            NaN            NaN                            NaN                            NaN                            NaN            NaN
-0.34699        -0.062560      NaN            NaN            NaN            NaN            NaN            NaN            NaN            NaN            NaN            NaN            NaN            NaN            NaN                            NaN                            NaN                            NaN            NaN
-0.34038        -0.062560      NaN            NaN            NaN            NaN            NaN            NaN            NaN            NaN            NaN            NaN            NaN            NaN            NaN                            NaN                            NaN                            NaN            NaN
-0.33377        -0.062560      NaN            NaN            NaN            NaN            NaN            NaN            NaN            NaN            NaN            NaN            NaN            NaN            NaN                            NaN                            NaN                            NaN            NaN
-0.32716        -0.062560      NaN            NaN            NaN            NaN            NaN            NaN            NaN            NaN            NaN            NaN            NaN            NaN            NaN                            NaN                            NaN                            NaN            NaN
-0.32055        -0.062560      NaN            NaN            NaN            NaN            NaN            NaN            NaN            NaN            NaN            NaN            NaN            NaN            NaN                            NaN                            NaN                            NaN            NaN
-0.31394        -0.062560      NaN            NaN            NaN            NaN            NaN            NaN            NaN            NaN            NaN            NaN            NaN            NaN            NaN                            NaN                            NaN                            NaN            NaN
-0.30733        -0.062560      NaN            NaN            NaN            NaN            NaN            NaN            NaN            NaN            NaN            NaN            NaN            NaN            NaN                            NaN                            NaN                            NaN            NaN
-0.30072        -0.062560      NaN            NaN            NaN            NaN            NaN            NaN            NaN            NaN            NaN            NaN            NaN            NaN            NaN                            NaN                            NaN                            NaN            NaN
-0.29411        -0.062560      NaN            NaN            NaN            NaN            NaN            NaN            NaN            NaN            NaN            NaN            NaN            NaN            NaN                            NaN                            NaN                            NaN            NaN
-0.28750        -0.062560      NaN            NaN            NaN            NaN            NaN            NaN            NaN            NaN            NaN            NaN            NaN            NaN            NaN                            NaN                            NaN                            NaN            NaN
-0.28089        -0.062560      NaN            NaN            NaN            NaN            NaN            NaN            NaN            NaN            NaN            NaN            NaN            NaN            NaN                            NaN                            NaN                            NaN            NaN
-0.27428        -0.062560      NaN            NaN            NaN            NaN            NaN            NaN            NaN            NaN            NaN            NaN            NaN            NaN            NaN                            NaN                            NaN                            NaN            NaN
-0.26767        -0.062560      NaN            NaN            NaN            NaN            NaN            NaN            NaN            NaN            NaN            NaN            NaN            NaN            NaN                            NaN                            NaN                            NaN            NaN
-0.26107        -0.062560      NaN            NaN            NaN            NaN            NaN            NaN            NaN            NaN            NaN            NaN            NaN            NaN            NaN                            NaN                            NaN                            NaN            NaN
-0.25446        -0.062560      NaN            NaN            NaN            NaN            NaN            NaN            NaN            NaN            NaN            NaN            NaN            NaN            NaN                            NaN                            NaN                            NaN            NaN
-0.24785        -0.062560      NaN            NaN            NaN            NaN            NaN            NaN            NaN            NaN            NaN            NaN            NaN            NaN            NaN                            NaN                            NaN                            NaN            NaN
-0.24124        -0.062560      NaN            NaN            NaN            NaN            NaN            NaN            NaN            NaN            NaN            NaN            NaN            NaN            NaN                            NaN                            NaN                            NaN            NaN
-0.23463        -0.062560      NaN            NaN            NaN            NaN            NaN            NaN            NaN            NaN            NaN            NaN            NaN            NaN            NaN                            NaN                            NaN                            NaN            NaN
-0.22802        -0.062560      NaN            NaN            NaN            NaN            NaN            NaN            NaN            NaN            NaN            NaN            NaN            NaN            NaN                            NaN                            NaN                            NaN            NaN
-0.22141        -0.062560      NaN            NaN            NaN            NaN            NaN            NaN            NaN            NaN            NaN            NaN            NaN            NaN            NaN                            NaN                            NaN                            NaN            NaN
-0.21480        -0.062560      NaN            NaN            NaN            NaN            NaN            NaN            NaN            NaN            NaN            NaN            NaN            NaN            NaN                            NaN                            NaN                            NaN            NaN
-0.20819        -0.062560      NaN            NaN            NaN            NaN            NaN            NaN            NaN            NaN            NaN            NaN            NaN            NaN            NaN                            NaN                            NaN                            NaN            NaN
-0.20158        -0.062560      NaN            NaN            NaN            NaN            NaN            NaN            NaN            NaN            NaN            NaN            NaN            NaN            NaN                            NaN                            NaN                            NaN            NaN
-0.19497        -0.062560      NaN            NaN            NaN            NaN            NaN            NaN            NaN            NaN            NaN            NaN            NaN            NaN            NaN                            NaN                            NaN                            NaN            NaN
-0.18836        -0.062560      NaN            NaN            NaN            NaN            NaN            NaN            NaN            NaN            NaN            NaN            NaN            NaN            NaN                            NaN                            NaN                            NaN            NaN
-0.18175        -0.062560      NaN            NaN            NaN            NaN            NaN            NaN            NaN            NaN            NaN            NaN            NaN            NaN            NaN                            NaN                            NaN                            NaN            NaN
-0.17514        -0.062560      NaN            NaN            NaN            NaN            NaN            NaN            NaN            NaN            NaN            NaN            NaN            NaN            NaN                            NaN                            NaN                            NaN            NaN
-0.16854        -0.062560      NaN            NaN            NaN            NaN            NaN            NaN            NaN            NaN            NaN            NaN            NaN            NaN            NaN                            NaN                            NaN                            NaN            NaN
-0.16193        -0.062560      NaN            NaN            NaN            NaN            NaN            NaN            NaN            NaN            NaN            NaN            NaN            NaN            NaN                            NaN                            NaN                            NaN            NaN
-0.15532        -0.062560      NaN            NaN            NaN            NaN            NaN            NaN            NaN            NaN            NaN            NaN            NaN            NaN            NaN                            NaN                            NaN                            NaN            NaN
-0.14871        -0.062560      NaN            NaN            NaN            NaN            NaN            NaN            NaN            NaN            NaN            NaN            NaN            NaN            NaN                            NaN                            NaN                            NaN            NaN
-0.14210        -0.062560      NaN            NaN            NaN            NaN            NaN            NaN            NaN            NaN            NaN            NaN            NaN            NaN            NaN                            NaN                            NaN                            NaN            NaN
-0.13549        -0.062560      NaN            NaN            NaN            NaN            NaN            NaN            NaN            NaN            NaN            NaN            NaN            NaN            NaN                            NaN                            NaN                            NaN            NaN
-0.12888        -0.062560      NaN            NaN            NaN            NaN            NaN            NaN            NaN            NaN            NaN            NaN            NaN            NaN            NaN                            NaN                            NaN                            NaN            NaN
-0.12227        -0.062560      NaN            NaN            NaN            NaN            NaN            NaN            NaN            NaN            NaN            NaN            NaN            NaN            NaN                            NaN                            NaN                            NaN            NaN
-0.11566        -0.062560      NaN            NaN            NaN            NaN            NaN            NaN            NaN            NaN            NaN            NaN            NaN            NaN            NaN                            NaN                            NaN                            NaN            NaN
-0.10905        -0.062560      NaN            NaN            NaN            NaN            NaN            NaN            NaN            NaN            NaN            NaN            NaN            NaN            NaN                            NaN                            NaN                            NaN            NaN
-0.10244        -0.062560      NaN            NaN            NaN            NaN            NaN            NaN            NaN            NaN            NaN            NaN            NaN            NaN            NaN                            NaN                            NaN                            NaN            NaN
-0.095834       -0.062560      NaN            NaN            NaN            NaN            NaN            NaN            NaN            NaN            NaN            NaN            NaN            NaN            NaN                            NaN                            NaN                            NaN            NaN
-0.089225       -0.062560      NaN            NaN            NaN            NaN            NaN            NaN            NaN            NaN            NaN            NaN            NaN            NaN            NaN                            NaN                            NaN                            NaN            NaN
-0.082616       -0.062560      NaN            NaN            NaN            NaN            NaN            NaN            NaN            NaN            NaN            NaN            NaN            NaN            NaN                            NaN                            NaN                            NaN            NaN
-0.076006       -0.062560      NaN            NaN            NaN            NaN            NaN            NaN            NaN            NaN            NaN            NaN            NaN            NaN            NaN                            NaN                            NaN                            NaN            NaN
-0.069397       -0.062560      NaN            NaN            NaN            NaN            NaN            NaN            NaN            NaN            NaN            NaN            NaN            NaN            NaN                            NaN                            NaN                            NaN            NaN